<?xml version="1.0" encoding="UTF-8"?>

<!-- generated on Fri 27 Mar 2020 09:38:02 WIB by Eclipse SUMO GUI Version 1.5.0
<configuration xmlns:xsi="http://www.w3.org/2001/XMLSchema-instance" xsi:noNamespaceSchemaLocation="http://sumo.dlr.de/xsd/sumoConfiguration.xsd">

    <input>
        <net-file value="/home/kekavigi/shiete/shiete.net.xml"/>
        <route-files value="/home/kekavigi/Github/flow/flow/core/kernel/network/debug/cfg/shiete_20200327-0938001585276680.3012881.rou.xml"/>
        <additional-files value="/home/kekavigi/Github/flow/flow/core/kernel/network/debug/cfg/shiete_20200327-0938001585276680.3012881.add.xml"/>
    </input>

    <output>
        <emission-output value="data/shiete_20200327-0938001585276680.3012881-emission.xml"/>
    </output>

    <time>
        <begin value="0"/>
        <step-length value="0.1"/>
    </time>

    <processing>
        <collision.check-junctions value="true"/>
        <time-to-teleport value="-1"/>
    </processing>

    <report>
        <no-step-log value="true"/>
    </report>

    <traci_server>
        <remote-port value="57679"/>
        <num-clients value="1"/>
    </traci_server>

    <gui_only>
        <gui-settings-file value="/home/kekavigi/Github/flow/flow/core/kernel/network/debug/cfg/shiete_20200327-0938001585276680.3012881.gui.cfg"/>
        <tracker-interval value="0.1"/>
    </gui_only>

</configuration>
-->

<emission-export xmlns:xsi="http://www.w3.org/2001/XMLSchema-instance" xsi:noNamespaceSchemaLocation="http://sumo.dlr.de/xsd/emission_file.xsd">
    <timestep time="0.00"/>
    <timestep time="0.10">
        <vehicle id="human_0" eclass="HBEFA3/PC_G_EU4" CO2="2624.72" CO="164.78" HC="0.81" NOx="1.20" PMx="0.07" fuel="1.13" electricity="0.00" noise="55.94" route="route-jalan#1_0" type="human" waiting="0.00" lane="-jalan#1_0" pos="5.00" speed="0.00" angle="181.66" x="255.63" y="829.27"/>
        <vehicle id="human_1" eclass="HBEFA3/PC_G_EU4" CO2="2624.72" CO="164.78" HC="0.81" NOx="1.20" PMx="0.07" fuel="1.13" electricity="0.00" noise="55.94" route="route-jalan#1_0" type="human" waiting="0.00" lane="-jalan#1_1" pos="5.00" speed="0.00" angle="181.67" x="252.43" y="829.36"/>
    </timestep>
    <timestep time="0.20">
        <vehicle id="human_0" eclass="HBEFA3/PC_G_EU4" CO2="2637.51" CO="163.29" HC="0.81" NOx="1.21" PMx="0.07" fuel="1.13" electricity="0.00" noise="60.33" route="route-jalan#1_0" type="human" waiting="0.10" lane="-jalan#1_0" pos="5.01" speed="0.10" angle="181.66" x="255.62" y="829.26"/>
        <vehicle id="human_1" eclass="HBEFA3/PC_G_EU4" CO2="2637.51" CO="163.29" HC="0.81" NOx="1.21" PMx="0.07" fuel="1.13" electricity="0.00" noise="60.33" route="route-jalan#1_0" type="human" waiting="0.10" lane="-jalan#1_1" pos="5.01" speed="0.10" angle="181.67" x="252.43" y="829.35"/>
    </timestep>
    <timestep time="0.30">
        <vehicle id="human_0" eclass="HBEFA3/PC_G_EU4" CO2="2650.44" CO="161.82" HC="0.80" NOx="1.21" PMx="0.07" fuel="1.14" electricity="0.00" noise="60.37" route="route-jalan#1_0" type="human" waiting="0.00" lane="-jalan#1_0" pos="5.03" speed="0.20" angle="181.66" x="255.62" y="829.24"/>
        <vehicle id="human_1" eclass="HBEFA3/PC_G_EU4" CO2="2650.44" CO="161.82" HC="0.80" NOx="1.21" PMx="0.07" fuel="1.14" electricity="0.00" noise="60.37" route="route-jalan#1_0" type="human" waiting="0.00" lane="-jalan#1_1" pos="5.03" speed="0.20" angle="181.67" x="252.43" y="829.33"/>
    </timestep>
    <timestep time="0.40">
        <vehicle id="human_0" eclass="HBEFA3/PC_G_EU4" CO2="2663.53" CO="160.36" HC="0.79" NOx="1.21" PMx="0.07" fuel="1.15" electricity="0.00" noise="60.41" route="route-jalan#1_0" type="human" waiting="0.00" lane="-jalan#1_0" pos="5.06" speed="0.30" angle="181.66" x="255.62" y="829.21"/>
        <vehicle id="human_1" eclass="HBEFA3/PC_G_EU4" CO2="2663.53" CO="160.36" HC="0.79" NOx="1.21" PMx="0.07" fuel="1.15" electricity="0.00" noise="60.41" route="route-jalan#1_0" type="human" waiting="0.00" lane="-jalan#1_1" pos="5.06" speed="0.30" angle="181.67" x="252.43" y="829.30"/>
    </timestep>
    <timestep time="0.50">
        <vehicle id="human_0" eclass="HBEFA3/PC_G_EU4" CO2="2676.78" CO="158.91" HC="0.79" NOx="1.22" PMx="0.07" fuel="1.15" electricity="0.00" noise="60.44" route="route-jalan#1_0" type="human" waiting="0.00" lane="-jalan#1_0" pos="5.10" speed="0.40" angle="181.66" x="255.62" y="829.17"/>
        <vehicle id="human_1" eclass="HBEFA3/PC_G_EU4" CO2="2676.78" CO="158.91" HC="0.79" NOx="1.22" PMx="0.07" fuel="1.15" electricity="0.00" noise="60.44" route="route-jalan#1_0" type="human" waiting="0.00" lane="-jalan#1_1" pos="5.10" speed="0.40" angle="181.67" x="252.43" y="829.26"/>
    </timestep>
    <timestep time="0.60">
        <vehicle id="human_0" eclass="HBEFA3/PC_G_EU4" CO2="2690.18" CO="157.48" HC="0.78" NOx="1.22" PMx="0.06" fuel="1.16" electricity="0.00" noise="60.48" route="route-jalan#1_0" type="human" waiting="0.00" lane="-jalan#1_0" pos="5.15" speed="0.50" angle="181.66" x="255.62" y="829.12"/>
        <vehicle id="human_1" eclass="HBEFA3/PC_G_EU4" CO2="2690.18" CO="157.48" HC="0.78" NOx="1.22" PMx="0.06" fuel="1.16" electricity="0.00" noise="60.48" route="route-jalan#1_0" type="human" waiting="0.00" lane="-jalan#1_1" pos="5.15" speed="0.50" angle="181.67" x="252.43" y="829.21"/>
    </timestep>
    <timestep time="0.70">
        <vehicle id="human_0" eclass="HBEFA3/PC_G_EU4" CO2="2703.73" CO="156.05" HC="0.77" NOx="1.23" PMx="0.06" fuel="1.16" electricity="0.00" noise="60.52" route="route-jalan#1_0" type="human" waiting="0.00" lane="-jalan#1_0" pos="5.21" speed="0.59" angle="181.66" x="255.62" y="829.06"/>
        <vehicle id="human_1" eclass="HBEFA3/PC_G_EU4" CO2="2703.73" CO="156.05" HC="0.77" NOx="1.23" PMx="0.06" fuel="1.16" electricity="0.00" noise="60.52" route="route-jalan#1_0" type="human" waiting="0.00" lane="-jalan#1_1" pos="5.21" speed="0.59" angle="181.67" x="252.43" y="829.15"/>
    </timestep>
    <timestep time="0.80">
        <vehicle id="human_0" eclass="HBEFA3/PC_G_EU4" CO2="2717.44" CO="154.64" HC="0.77" NOx="1.23" PMx="0.06" fuel="1.17" electricity="0.00" noise="60.56" route="route-jalan#1_0" type="human" waiting="0.00" lane="-jalan#1_0" pos="5.28" speed="0.69" angle="181.66" x="255.62" y="828.99"/>
        <vehicle id="human_1" eclass="HBEFA3/PC_G_EU4" CO2="2717.44" CO="154.64" HC="0.77" NOx="1.23" PMx="0.06" fuel="1.17" electricity="0.00" noise="60.56" route="route-jalan#1_0" type="human" waiting="0.00" lane="-jalan#1_1" pos="5.28" speed="0.69" angle="181.67" x="252.43" y="829.08"/>
    </timestep>
    <timestep time="0.90">
        <vehicle id="human_0" eclass="HBEFA3/PC_G_EU4" CO2="2731.30" CO="153.23" HC="0.76" NOx="1.23" PMx="0.06" fuel="1.17" electricity="0.00" noise="60.60" route="route-jalan#1_0" type="human" waiting="0.00" lane="-jalan#1_0" pos="5.36" speed="0.79" angle="181.66" x="255.61" y="828.91"/>
        <vehicle id="human_1" eclass="HBEFA3/PC_G_EU4" CO2="2731.30" CO="153.23" HC="0.76" NOx="1.23" PMx="0.06" fuel="1.17" electricity="0.00" noise="60.60" route="route-jalan#1_0" type="human" waiting="0.00" lane="-jalan#1_1" pos="5.36" speed="0.79" angle="181.67" x="252.42" y="829.00"/>
    </timestep>
    <timestep time="1.00">
        <vehicle id="human_0" eclass="HBEFA3/PC_G_EU4" CO2="2745.31" CO="151.84" HC="0.76" NOx="1.24" PMx="0.06" fuel="1.18" electricity="0.00" noise="60.63" route="route-jalan#1_0" type="human" waiting="0.00" lane="-jalan#1_0" pos="5.45" speed="0.89" angle="181.66" x="255.61" y="828.82"/>
        <vehicle id="human_1" eclass="HBEFA3/PC_G_EU4" CO2="2745.31" CO="151.84" HC="0.76" NOx="1.24" PMx="0.06" fuel="1.18" electricity="0.00" noise="60.63" route="route-jalan#1_0" type="human" waiting="0.00" lane="-jalan#1_1" pos="5.45" speed="0.89" angle="181.67" x="252.42" y="828.91"/>
    </timestep>
    <timestep time="1.10">
        <vehicle id="human_0" eclass="HBEFA3/PC_G_EU4" CO2="2759.48" CO="150.46" HC="0.75" NOx="1.24" PMx="0.06" fuel="1.19" electricity="0.00" noise="60.67" route="route-jalan#1_0" type="human" waiting="0.00" lane="-jalan#1_0" pos="5.54" speed="0.99" angle="181.66" x="255.61" y="828.72"/>
        <vehicle id="human_1" eclass="HBEFA3/PC_G_EU4" CO2="2759.48" CO="150.46" HC="0.75" NOx="1.24" PMx="0.06" fuel="1.19" electricity="0.00" noise="60.67" route="route-jalan#1_0" type="human" waiting="0.00" lane="-jalan#1_1" pos="5.54" speed="0.99" angle="181.67" x="252.42" y="828.81"/>
    </timestep>
    <timestep time="1.20">
        <vehicle id="human_0" eclass="HBEFA3/PC_G_EU4" CO2="2773.80" CO="149.09" HC="0.74" NOx="1.24" PMx="0.06" fuel="1.19" electricity="0.00" noise="60.71" route="route-jalan#1_0" type="human" waiting="0.00" lane="-jalan#1_0" pos="5.65" speed="1.09" angle="181.66" x="255.61" y="828.61"/>
        <vehicle id="human_1" eclass="HBEFA3/PC_G_EU4" CO2="2773.80" CO="149.09" HC="0.74" NOx="1.24" PMx="0.06" fuel="1.19" electricity="0.00" noise="60.71" route="route-jalan#1_0" type="human" waiting="0.00" lane="-jalan#1_1" pos="5.65" speed="1.09" angle="181.67" x="252.42" y="828.70"/>
    </timestep>
    <timestep time="1.30">
        <vehicle id="human_0" eclass="HBEFA3/PC_G_EU4" CO2="2788.28" CO="147.73" HC="0.74" NOx="1.25" PMx="0.06" fuel="1.20" electricity="0.00" noise="60.75" route="route-jalan#1_0" type="human" waiting="0.00" lane="-jalan#1_0" pos="5.77" speed="1.19" angle="181.66" x="255.60" y="828.50"/>
        <vehicle id="human_1" eclass="HBEFA3/PC_G_EU4" CO2="2788.28" CO="147.73" HC="0.74" NOx="1.25" PMx="0.06" fuel="1.20" electricity="0.00" noise="60.75" route="route-jalan#1_0" type="human" waiting="0.00" lane="-jalan#1_1" pos="5.77" speed="1.19" angle="181.67" x="252.41" y="828.58"/>
    </timestep>
    <timestep time="1.40">
        <vehicle id="human_0" eclass="HBEFA3/PC_G_EU4" CO2="2802.91" CO="146.39" HC="0.73" NOx="1.25" PMx="0.06" fuel="1.20" electricity="0.00" noise="60.79" route="route-jalan#1_0" type="human" waiting="0.00" lane="-jalan#1_0" pos="5.90" speed="1.29" angle="181.66" x="255.60" y="828.37"/>
        <vehicle id="human_1" eclass="HBEFA3/PC_G_EU4" CO2="2802.91" CO="146.39" HC="0.73" NOx="1.25" PMx="0.06" fuel="1.20" electricity="0.00" noise="60.79" route="route-jalan#1_0" type="human" waiting="0.00" lane="-jalan#1_1" pos="5.90" speed="1.29" angle="181.67" x="252.41" y="828.46"/>
    </timestep>
    <timestep time="1.50">
        <vehicle id="human_0" eclass="HBEFA3/PC_G_EU4" CO2="2817.69" CO="145.05" HC="0.73" NOx="1.26" PMx="0.06" fuel="1.21" electricity="0.00" noise="60.83" route="route-jalan#1_0" type="human" waiting="0.00" lane="-jalan#1_0" pos="6.04" speed="1.39" angle="181.66" x="255.60" y="828.23"/>
        <vehicle id="human_1" eclass="HBEFA3/PC_G_EU4" CO2="2817.69" CO="145.05" HC="0.73" NOx="1.26" PMx="0.06" fuel="1.21" electricity="0.00" noise="60.83" route="route-jalan#1_0" type="human" waiting="0.00" lane="-jalan#1_1" pos="6.04" speed="1.39" angle="181.67" x="252.40" y="828.32"/>
    </timestep>
    <timestep time="1.60">
        <vehicle id="human_0" eclass="HBEFA3/PC_G_EU4" CO2="2832.63" CO="143.73" HC="0.72" NOx="1.26" PMx="0.06" fuel="1.22" electricity="0.00" noise="60.87" route="route-jalan#1_0" type="human" waiting="0.00" lane="-jalan#1_0" pos="6.19" speed="1.49" angle="181.66" x="255.59" y="828.08"/>
        <vehicle id="human_1" eclass="HBEFA3/PC_G_EU4" CO2="2832.63" CO="143.73" HC="0.72" NOx="1.26" PMx="0.06" fuel="1.22" electricity="0.00" noise="60.87" route="route-jalan#1_0" type="human" waiting="0.00" lane="-jalan#1_1" pos="6.19" speed="1.49" angle="181.67" x="252.40" y="828.17"/>
    </timestep>
    <timestep time="1.70">
        <vehicle id="human_0" eclass="HBEFA3/PC_G_EU4" CO2="2847.72" CO="142.42" HC="0.71" NOx="1.27" PMx="0.06" fuel="1.22" electricity="0.00" noise="60.91" route="route-jalan#1_0" type="human" waiting="0.00" lane="-jalan#1_0" pos="6.35" speed="1.58" angle="181.66" x="255.59" y="827.92"/>
        <vehicle id="human_1" eclass="HBEFA3/PC_G_EU4" CO2="2847.72" CO="142.42" HC="0.71" NOx="1.27" PMx="0.06" fuel="1.22" electricity="0.00" noise="60.91" route="route-jalan#1_0" type="human" waiting="0.00" lane="-jalan#1_1" pos="6.35" speed="1.58" angle="181.67" x="252.40" y="828.01"/>
    </timestep>
    <timestep time="1.80">
        <vehicle id="human_0" eclass="HBEFA3/PC_G_EU4" CO2="2862.97" CO="141.12" HC="0.71" NOx="1.27" PMx="0.06" fuel="1.23" electricity="0.00" noise="60.95" route="route-jalan#1_0" type="human" waiting="0.00" lane="-jalan#1_0" pos="6.51" speed="1.68" angle="181.66" x="255.58" y="827.75"/>
        <vehicle id="human_1" eclass="HBEFA3/PC_G_EU4" CO2="2862.97" CO="141.12" HC="0.71" NOx="1.27" PMx="0.06" fuel="1.23" electricity="0.00" noise="60.95" route="route-jalan#1_0" type="human" waiting="0.00" lane="-jalan#1_1" pos="6.51" speed="1.68" angle="181.67" x="252.39" y="827.84"/>
    </timestep>
    <timestep time="1.90">
        <vehicle id="human_0" eclass="HBEFA3/PC_G_EU4" CO2="2878.37" CO="139.83" HC="0.70" NOx="1.27" PMx="0.06" fuel="1.24" electricity="0.00" noise="60.99" route="route-jalan#1_0" type="human" waiting="0.00" lane="-jalan#1_0" pos="6.69" speed="1.78" angle="181.66" x="255.58" y="827.58"/>
        <vehicle id="human_1" eclass="HBEFA3/PC_G_EU4" CO2="2878.37" CO="139.83" HC="0.70" NOx="1.27" PMx="0.06" fuel="1.24" electricity="0.00" noise="60.99" route="route-jalan#1_0" type="human" waiting="0.00" lane="-jalan#1_1" pos="6.69" speed="1.78" angle="181.67" x="252.39" y="827.66"/>
    </timestep>
    <timestep time="2.00">
        <vehicle id="human_0" eclass="HBEFA3/PC_G_EU4" CO2="2893.92" CO="138.55" HC="0.70" NOx="1.28" PMx="0.06" fuel="1.24" electricity="0.00" noise="61.03" route="route-jalan#1_0" type="human" waiting="0.00" lane="-jalan#1_0" pos="6.88" speed="1.88" angle="181.66" x="255.57" y="827.39"/>
        <vehicle id="human_1" eclass="HBEFA3/PC_G_EU4" CO2="2893.92" CO="138.55" HC="0.70" NOx="1.28" PMx="0.06" fuel="1.24" electricity="0.00" noise="61.03" route="route-jalan#1_0" type="human" waiting="0.00" lane="-jalan#1_1" pos="6.88" speed="1.88" angle="181.67" x="252.38" y="827.47"/>
    </timestep>
    <timestep time="2.10">
        <vehicle id="human_0" eclass="HBEFA3/PC_G_EU4" CO2="2909.62" CO="137.28" HC="0.69" NOx="1.28" PMx="0.06" fuel="1.25" electricity="0.00" noise="61.07" route="route-jalan#1_0" type="human" waiting="0.00" lane="-jalan#1_0" pos="7.08" speed="1.98" angle="181.66" x="255.57" y="827.19"/>
        <vehicle id="human_1" eclass="HBEFA3/PC_G_EU4" CO2="2909.62" CO="137.28" HC="0.69" NOx="1.28" PMx="0.06" fuel="1.25" electricity="0.00" noise="61.07" route="route-jalan#1_0" type="human" waiting="0.00" lane="-jalan#1_1" pos="7.08" speed="1.98" angle="181.67" x="252.37" y="827.28"/>
    </timestep>
    <timestep time="2.20">
        <vehicle id="human_0" eclass="HBEFA3/PC_G_EU4" CO2="2925.48" CO="136.02" HC="0.69" NOx="1.29" PMx="0.06" fuel="1.26" electricity="0.00" noise="61.11" route="route-jalan#1_0" type="human" waiting="0.00" lane="-jalan#1_0" pos="7.29" speed="2.08" angle="181.66" x="255.56" y="826.98"/>
        <vehicle id="human_1" eclass="HBEFA3/PC_G_EU4" CO2="2925.48" CO="136.02" HC="0.69" NOx="1.29" PMx="0.06" fuel="1.26" electricity="0.00" noise="61.11" route="route-jalan#1_0" type="human" waiting="0.00" lane="-jalan#1_1" pos="7.29" speed="2.08" angle="181.67" x="252.37" y="827.07"/>
    </timestep>
    <timestep time="2.30">
        <vehicle id="human_0" eclass="HBEFA3/PC_G_EU4" CO2="2941.50" CO="134.78" HC="0.68" NOx="1.29" PMx="0.06" fuel="1.26" electricity="0.00" noise="61.15" route="route-jalan#1_0" type="human" waiting="0.00" lane="-jalan#1_0" pos="7.50" speed="2.18" angle="181.66" x="255.55" y="826.77"/>
        <vehicle id="human_1" eclass="HBEFA3/PC_G_EU4" CO2="2941.50" CO="134.78" HC="0.68" NOx="1.29" PMx="0.06" fuel="1.26" electricity="0.00" noise="61.15" route="route-jalan#1_0" type="human" waiting="0.00" lane="-jalan#1_1" pos="7.50" speed="2.18" angle="181.67" x="252.36" y="826.85"/>
    </timestep>
    <timestep time="2.40">
        <vehicle id="human_0" eclass="HBEFA3/PC_G_EU4" CO2="2957.66" CO="133.55" HC="0.68" NOx="1.30" PMx="0.06" fuel="1.27" electricity="0.00" noise="61.19" route="route-jalan#1_0" type="human" waiting="0.00" lane="-jalan#1_0" pos="7.73" speed="2.28" angle="181.66" x="255.55" y="826.54"/>
        <vehicle id="human_1" eclass="HBEFA3/PC_G_EU4" CO2="2957.66" CO="133.55" HC="0.68" NOx="1.30" PMx="0.06" fuel="1.27" electricity="0.00" noise="61.19" route="route-jalan#1_0" type="human" waiting="0.00" lane="-jalan#1_1" pos="7.73" speed="2.28" angle="181.67" x="252.35" y="826.62"/>
    </timestep>
    <timestep time="2.50">
        <vehicle id="human_0" eclass="HBEFA3/PC_G_EU4" CO2="2973.98" CO="132.33" HC="0.67" NOx="1.30" PMx="0.06" fuel="1.28" electricity="0.00" noise="61.23" route="route-jalan#1_0" type="human" waiting="0.00" lane="-jalan#1_0" pos="7.97" speed="2.38" angle="181.66" x="255.54" y="826.30"/>
        <vehicle id="human_1" eclass="HBEFA3/PC_G_EU4" CO2="2973.98" CO="132.33" HC="0.67" NOx="1.30" PMx="0.06" fuel="1.28" electricity="0.00" noise="61.23" route="route-jalan#1_0" type="human" waiting="0.00" lane="-jalan#1_1" pos="7.97" speed="2.38" angle="181.67" x="252.35" y="826.39"/>
    </timestep>
    <timestep time="2.60">
        <vehicle id="human_0" eclass="HBEFA3/PC_G_EU4" CO2="2990.45" CO="131.12" HC="0.67" NOx="1.31" PMx="0.06" fuel="1.29" electricity="0.00" noise="61.27" route="route-jalan#1_0" type="human" waiting="0.00" lane="-jalan#1_0" pos="8.22" speed="2.48" angle="181.66" x="255.53" y="826.05"/>
        <vehicle id="human_1" eclass="HBEFA3/PC_G_EU4" CO2="2990.45" CO="131.12" HC="0.67" NOx="1.31" PMx="0.06" fuel="1.29" electricity="0.00" noise="61.27" route="route-jalan#1_0" type="human" waiting="0.00" lane="-jalan#1_1" pos="8.22" speed="2.48" angle="181.67" x="252.34" y="826.14"/>
    </timestep>
    <timestep time="2.70">
        <vehicle id="human_0" eclass="HBEFA3/PC_G_EU4" CO2="3007.08" CO="129.92" HC="0.66" NOx="1.31" PMx="0.06" fuel="1.29" electricity="0.00" noise="61.32" route="route-jalan#1_0" type="human" waiting="0.00" lane="-jalan#1_0" pos="8.48" speed="2.57" angle="181.66" x="255.52" y="825.80"/>
        <vehicle id="human_1" eclass="HBEFA3/PC_G_EU4" CO2="3007.08" CO="129.92" HC="0.66" NOx="1.31" PMx="0.06" fuel="1.29" electricity="0.00" noise="61.32" route="route-jalan#1_0" type="human" waiting="0.00" lane="-jalan#1_1" pos="8.48" speed="2.57" angle="181.67" x="252.33" y="825.88"/>
    </timestep>
    <timestep time="2.80">
        <vehicle id="human_0" eclass="HBEFA3/PC_G_EU4" CO2="3023.85" CO="128.73" HC="0.66" NOx="1.32" PMx="0.06" fuel="1.30" electricity="0.00" noise="61.36" route="route-jalan#1_0" type="human" waiting="0.00" lane="-jalan#1_0" pos="8.74" speed="2.67" angle="181.66" x="255.52" y="825.53"/>
        <vehicle id="human_1" eclass="HBEFA3/PC_G_EU4" CO2="3023.85" CO="128.73" HC="0.66" NOx="1.32" PMx="0.06" fuel="1.30" electricity="0.00" noise="61.36" route="route-jalan#1_0" type="human" waiting="0.00" lane="-jalan#1_1" pos="8.74" speed="2.67" angle="181.67" x="252.33" y="825.61"/>
    </timestep>
    <timestep time="2.90">
        <vehicle id="human_0" eclass="HBEFA3/PC_G_EU4" CO2="3040.78" CO="127.55" HC="0.65" NOx="1.32" PMx="0.06" fuel="1.31" electricity="0.00" noise="61.40" route="route-jalan#1_0" type="human" waiting="0.00" lane="-jalan#1_0" pos="9.02" speed="2.77" angle="181.66" x="255.51" y="825.25"/>
        <vehicle id="human_1" eclass="HBEFA3/PC_G_EU4" CO2="3040.78" CO="127.55" HC="0.65" NOx="1.32" PMx="0.06" fuel="1.31" electricity="0.00" noise="61.40" route="route-jalan#1_0" type="human" waiting="0.00" lane="-jalan#1_1" pos="9.02" speed="2.77" angle="181.67" x="252.32" y="825.33"/>
    </timestep>
    <timestep time="3.00">
        <vehicle id="human_0" eclass="HBEFA3/PC_G_EU4" CO2="3057.87" CO="126.39" HC="0.65" NOx="1.33" PMx="0.06" fuel="1.31" electricity="0.00" noise="61.44" route="route-jalan#1_0" type="human" waiting="0.00" lane="-jalan#1_0" pos="9.31" speed="2.87" angle="181.66" x="255.50" y="824.97"/>
        <vehicle id="human_1" eclass="HBEFA3/PC_G_EU4" CO2="3057.87" CO="126.39" HC="0.65" NOx="1.33" PMx="0.06" fuel="1.31" electricity="0.00" noise="61.44" route="route-jalan#1_0" type="human" waiting="0.00" lane="-jalan#1_1" pos="9.31" speed="2.87" angle="181.67" x="252.31" y="825.05"/>
    </timestep>
    <timestep time="3.10">
        <vehicle id="human_0" eclass="HBEFA3/PC_G_EU4" CO2="3075.10" CO="125.23" HC="0.64" NOx="1.34" PMx="0.06" fuel="1.32" electricity="0.00" noise="61.49" route="route-jalan#1_0" type="human" waiting="0.00" lane="-jalan#1_0" pos="9.60" speed="2.97" angle="181.66" x="255.49" y="824.67"/>
        <vehicle id="human_1" eclass="HBEFA3/PC_G_EU4" CO2="3075.10" CO="125.23" HC="0.64" NOx="1.34" PMx="0.06" fuel="1.32" electricity="0.00" noise="61.49" route="route-jalan#1_0" type="human" waiting="0.00" lane="-jalan#1_1" pos="9.60" speed="2.97" angle="181.67" x="252.30" y="824.75"/>
    </timestep>
    <timestep time="3.20">
        <vehicle id="human_0" eclass="HBEFA3/PC_G_EU4" CO2="3092.49" CO="124.09" HC="0.64" NOx="1.34" PMx="0.06" fuel="1.33" electricity="0.00" noise="61.53" route="route-jalan#1_0" type="human" waiting="0.00" lane="-jalan#1_0" pos="9.91" speed="3.07" angle="181.66" x="255.48" y="824.36"/>
        <vehicle id="human_1" eclass="HBEFA3/PC_G_EU4" CO2="3092.49" CO="124.09" HC="0.64" NOx="1.34" PMx="0.06" fuel="1.33" electricity="0.00" noise="61.53" route="route-jalan#1_0" type="human" waiting="0.00" lane="-jalan#1_1" pos="9.91" speed="3.07" angle="181.67" x="252.29" y="824.44"/>
    </timestep>
    <timestep time="3.30">
        <vehicle id="human_0" eclass="HBEFA3/PC_G_EU4" CO2="3110.03" CO="122.96" HC="0.63" NOx="1.35" PMx="0.06" fuel="1.34" electricity="0.00" noise="61.57" route="route-jalan#1_0" type="human" waiting="0.00" lane="-jalan#1_0" pos="10.23" speed="3.17" angle="181.66" x="255.47" y="824.05"/>
        <vehicle id="human_1" eclass="HBEFA3/PC_G_EU4" CO2="3110.03" CO="122.96" HC="0.63" NOx="1.35" PMx="0.06" fuel="1.34" electricity="0.00" noise="61.57" route="route-jalan#1_0" type="human" waiting="0.00" lane="-jalan#1_1" pos="10.23" speed="3.17" angle="181.67" x="252.28" y="824.13"/>
    </timestep>
    <timestep time="3.40">
        <vehicle id="human_0" eclass="HBEFA3/PC_G_EU4" CO2="3127.72" CO="121.84" HC="0.63" NOx="1.35" PMx="0.06" fuel="1.34" electricity="0.00" noise="61.62" route="route-jalan#1_0" type="human" waiting="0.00" lane="-jalan#1_0" pos="10.55" speed="3.27" angle="181.66" x="255.46" y="823.72"/>
        <vehicle id="human_1" eclass="HBEFA3/PC_G_EU4" CO2="3127.72" CO="121.84" HC="0.63" NOx="1.35" PMx="0.06" fuel="1.34" electricity="0.00" noise="61.62" route="route-jalan#1_0" type="human" waiting="0.00" lane="-jalan#1_1" pos="10.55" speed="3.27" angle="181.67" x="252.27" y="823.80"/>
    </timestep>
    <timestep time="3.50">
        <vehicle id="human_0" eclass="HBEFA3/PC_G_EU4" CO2="3145.56" CO="120.73" HC="0.62" NOx="1.36" PMx="0.06" fuel="1.35" electricity="0.00" noise="61.66" route="route-jalan#1_0" type="human" waiting="0.00" lane="-jalan#1_0" pos="10.89" speed="3.37" angle="181.66" x="255.45" y="823.38"/>
        <vehicle id="human_1" eclass="HBEFA3/PC_G_EU4" CO2="3145.56" CO="120.73" HC="0.62" NOx="1.36" PMx="0.06" fuel="1.35" electricity="0.00" noise="61.66" route="route-jalan#1_0" type="human" waiting="0.00" lane="-jalan#1_1" pos="10.89" speed="3.37" angle="181.67" x="252.26" y="823.46"/>
    </timestep>
    <timestep time="3.60">
        <vehicle id="human_0" eclass="HBEFA3/PC_G_EU4" CO2="3163.56" CO="119.64" HC="0.62" NOx="1.36" PMx="0.06" fuel="1.36" electricity="0.00" noise="61.71" route="route-jalan#1_0" type="human" waiting="0.00" lane="-jalan#1_0" pos="11.24" speed="3.47" angle="181.66" x="255.44" y="823.04"/>
        <vehicle id="human_1" eclass="HBEFA3/PC_G_EU4" CO2="3163.56" CO="119.64" HC="0.62" NOx="1.36" PMx="0.06" fuel="1.36" electricity="0.00" noise="61.71" route="route-jalan#1_0" type="human" waiting="0.00" lane="-jalan#1_1" pos="11.24" speed="3.47" angle="181.67" x="252.25" y="823.12"/>
    </timestep>
    <timestep time="3.70">
        <vehicle id="human_0" eclass="HBEFA3/PC_G_EU4" CO2="3181.70" CO="118.55" HC="0.61" NOx="1.37" PMx="0.06" fuel="1.37" electricity="0.00" noise="61.75" route="route-jalan#1_0" type="human" waiting="0.00" lane="-jalan#1_0" pos="11.59" speed="3.56" angle="181.66" x="255.43" y="822.68"/>
        <vehicle id="human_1" eclass="HBEFA3/PC_G_EU4" CO2="3181.70" CO="118.55" HC="0.61" NOx="1.37" PMx="0.06" fuel="1.37" electricity="0.00" noise="61.75" route="route-jalan#1_0" type="human" waiting="0.00" lane="-jalan#1_1" pos="11.59" speed="3.56" angle="181.67" x="252.24" y="822.76"/>
    </timestep>
    <timestep time="3.80">
        <vehicle id="human_0" eclass="HBEFA3/PC_G_EU4" CO2="3200.00" CO="117.48" HC="0.61" NOx="1.38" PMx="0.06" fuel="1.38" electricity="0.00" noise="61.80" route="route-jalan#1_0" type="human" waiting="0.00" lane="-jalan#1_0" pos="11.96" speed="3.66" angle="181.66" x="255.42" y="822.32"/>
        <vehicle id="human_1" eclass="HBEFA3/PC_G_EU4" CO2="3200.00" CO="117.48" HC="0.61" NOx="1.38" PMx="0.06" fuel="1.38" electricity="0.00" noise="61.80" route="route-jalan#1_0" type="human" waiting="0.00" lane="-jalan#1_1" pos="11.96" speed="3.66" angle="181.67" x="252.23" y="822.39"/>
    </timestep>
    <timestep time="3.90">
        <vehicle id="human_0" eclass="HBEFA3/PC_G_EU4" CO2="3218.44" CO="116.42" HC="0.60" NOx="1.38" PMx="0.06" fuel="1.38" electricity="0.00" noise="61.84" route="route-jalan#1_0" type="human" waiting="0.00" lane="-jalan#1_0" pos="12.34" speed="3.76" angle="181.66" x="255.41" y="821.94"/>
        <vehicle id="human_1" eclass="HBEFA3/PC_G_EU4" CO2="3218.44" CO="116.42" HC="0.60" NOx="1.38" PMx="0.06" fuel="1.38" electricity="0.00" noise="61.84" route="route-jalan#1_0" type="human" waiting="0.00" lane="-jalan#1_1" pos="12.34" speed="3.76" angle="181.67" x="252.22" y="822.02"/>
    </timestep>
    <timestep time="4.00">
        <vehicle id="human_0" eclass="HBEFA3/PC_G_EU4" CO2="3237.04" CO="115.36" HC="0.60" NOx="1.39" PMx="0.06" fuel="1.39" electricity="0.00" noise="61.89" route="route-jalan#1_0" type="human" waiting="0.00" lane="-jalan#1_0" pos="12.72" speed="3.86" angle="181.66" x="255.40" y="821.56"/>
        <vehicle id="human_1" eclass="HBEFA3/PC_G_EU4" CO2="3237.04" CO="115.36" HC="0.60" NOx="1.39" PMx="0.06" fuel="1.39" electricity="0.00" noise="61.89" route="route-jalan#1_0" type="human" waiting="0.00" lane="-jalan#1_1" pos="12.72" speed="3.86" angle="181.67" x="252.21" y="821.63"/>
    </timestep>
    <timestep time="4.10">
        <vehicle id="human_0" eclass="HBEFA3/PC_G_EU4" CO2="3255.78" CO="114.32" HC="0.60" NOx="1.39" PMx="0.06" fuel="1.40" electricity="0.00" noise="61.93" route="route-jalan#1_0" type="human" waiting="0.00" lane="-jalan#1_0" pos="13.12" speed="3.96" angle="181.66" x="255.39" y="821.16"/>
        <vehicle id="human_1" eclass="HBEFA3/PC_G_EU4" CO2="3255.78" CO="114.32" HC="0.60" NOx="1.39" PMx="0.06" fuel="1.40" electricity="0.00" noise="61.93" route="route-jalan#1_0" type="human" waiting="0.00" lane="-jalan#1_1" pos="13.12" speed="3.96" angle="181.67" x="252.20" y="821.23"/>
    </timestep>
    <timestep time="4.20">
        <vehicle id="human_0" eclass="HBEFA3/PC_G_EU4" CO2="3274.68" CO="113.29" HC="0.59" NOx="1.40" PMx="0.06" fuel="1.41" electricity="0.00" noise="61.98" route="route-jalan#1_0" type="human" waiting="0.00" lane="-jalan#1_0" pos="13.52" speed="4.06" angle="181.66" x="255.38" y="820.75"/>
        <vehicle id="human_1" eclass="HBEFA3/PC_G_EU4" CO2="3274.68" CO="113.29" HC="0.59" NOx="1.40" PMx="0.06" fuel="1.41" electricity="0.00" noise="61.98" route="route-jalan#1_0" type="human" waiting="0.00" lane="-jalan#1_1" pos="13.52" speed="4.06" angle="181.67" x="252.19" y="820.83"/>
    </timestep>
    <timestep time="4.30">
        <vehicle id="human_0" eclass="HBEFA3/PC_G_EU4" CO2="3293.73" CO="112.28" HC="0.59" NOx="1.41" PMx="0.06" fuel="1.42" electricity="0.00" noise="62.02" route="route-jalan#1_0" type="human" waiting="0.00" lane="-jalan#1_0" pos="13.94" speed="4.16" angle="181.66" x="255.37" y="820.34"/>
        <vehicle id="human_1" eclass="HBEFA3/PC_G_EU4" CO2="3293.73" CO="112.28" HC="0.59" NOx="1.41" PMx="0.06" fuel="1.42" electricity="0.00" noise="62.02" route="route-jalan#1_0" type="human" waiting="0.00" lane="-jalan#1_1" pos="13.94" speed="4.16" angle="181.67" x="252.17" y="820.41"/>
    </timestep>
    <timestep time="4.40">
        <vehicle id="human_0" eclass="HBEFA3/PC_G_EU4" CO2="3312.92" CO="111.27" HC="0.58" NOx="1.41" PMx="0.06" fuel="1.42" electricity="0.00" noise="62.07" route="route-jalan#1_0" type="human" waiting="0.00" lane="-jalan#1_0" pos="14.37" speed="4.26" angle="181.66" x="255.35" y="819.91"/>
        <vehicle id="human_1" eclass="HBEFA3/PC_G_EU4" CO2="3312.92" CO="111.27" HC="0.58" NOx="1.41" PMx="0.06" fuel="1.42" electricity="0.00" noise="62.07" route="route-jalan#1_0" type="human" waiting="0.00" lane="-jalan#1_1" pos="14.37" speed="4.26" angle="181.67" x="252.16" y="819.99"/>
    </timestep>
    <timestep time="4.50">
        <vehicle id="human_0" eclass="HBEFA3/PC_G_EU4" CO2="3332.26" CO="110.28" HC="0.58" NOx="1.42" PMx="0.06" fuel="1.43" electricity="0.00" noise="62.12" route="route-jalan#1_0" type="human" waiting="0.00" lane="-jalan#1_0" pos="14.80" speed="4.36" angle="181.66" x="255.34" y="819.48"/>
        <vehicle id="human_1" eclass="HBEFA3/PC_G_EU4" CO2="3332.26" CO="110.28" HC="0.58" NOx="1.42" PMx="0.06" fuel="1.43" electricity="0.00" noise="62.12" route="route-jalan#1_0" type="human" waiting="0.00" lane="-jalan#1_1" pos="14.80" speed="4.36" angle="181.67" x="252.15" y="819.55"/>
    </timestep>
    <timestep time="4.60">